version 2
run General-0-20190222-15:31:48-6464
attr configname General
attr datetime 20190222-15:31:48
attr experiment General
attr inifile omnetpp.ini
attr iterationvars ""
attr iterationvarsf ""
attr measurement ""
attr network Net
attr processid 6464
attr repetition 0
attr replication #0
attr resultdir results
attr runnumber 0
attr seedset 0

vector 0 Net.queue qlen:vector ETV
attr interpolationmode sample-hold
attr title "queue length, vector"
0	0	0	0
vector 1 Net.queue queueingTime:vector ETV
attr interpolationmode none
attr title "queueing time at dequeue, vector"
attr unit s
1	2	0.3	0
vector 2 Net.queue responseTime:vector ETV
attr interpolationmode none
attr title "response time at end of service, vector"
attr unit s
2	5	0.7	0.4
1	6	0.7	0
vector 3 Net.sink lifetime:vector ETV
attr interpolationmode none
attr title "lifetime of arrived msg, vector"
attr unit s
vector 4 Net.sink arrivedMsg:vector ETV
attr interpolationmode none
attr title "number of arrived msg, vector"
3	7	0.7	0.7
4	7	0.7	1
0	10	0.9	0
1	10	0.9	0
2	10	0.9	0.2
3	12	0.9	0.5
4	12	0.9	2
0	16	1.3	0
1	16	1.3	0.4
2	16	1.3	0.1
0	22	1.7	0
0	26	1.9	1
0	29	2.2	0
0	32	2.5	0
0	38	2.8	0
0	42	3.1	0
0	47	3.5	0
0	50	3.8	0
0	54	4.2	0
0	62	4.6	1
0	66	4.8	0
0	70	5	0
0	74	5.2	0
0	77	5.4	0
0	80	5.7	1
0	84	6.1	1
0	88	6.5	0
0	93	6.9	0
0	98	7	0
0	102	7.3	1
0	107	7.9	1
0	111	8	1
0	114	8.4	0
0	118	8.7	0
0	122	9	0
0	126	9.4	0
0	130	9.8	4
0	134	10.2	4
0	139	10.6	4
0	144	10.8	0
0	148	11	0
0	151	11.3	5
0	154	11.8	4
0	159	12.2	4
0	163	12.4	5
0	166	12.9	4
0	170	13.4	4
0	174	13.7	4
0	178	14.1	4
0	184	14.6	4
0	190	14.7	0
0	192	14.8	0
0	199	15.2	0
0	204	15.5	1
0	208	15.7	0
0	210	15.9	1
0	216	16.3	1
0	221	16.4	0
0	226	16.6	0
0	231	16.8	0
0	234	16.9	0
0	236	17.1	1
0	242	17.5	1
0	248	17.8	1
0	251	18	0
0	254	18.2	1
0	258	18.6	1
0	262	19.1	1
0	267	19.5	0
0	273	19.7	0
0	277	20	0
0	280	20.3	0
0	284	20.7	0
0	288	21.1	9
0	292	21.6	9
0	297	22.1	9
0	302	22.2	0
0	306	22.5	0
0	311	23	1
0	314	23.4	0
0	318	23.8	0
0	322	24.2	10
0	327	24.7	10
0	331	24.9	11
0	334	25.4	10
0	338	25.9	10
0	344	26.2	10
0	348	26.3	0
0	352	26.5	0
0	355	26.9	11
0	361	27.6	11
0	366	27.8	0
0	369	28	12
0	372	28.5	11
0	378	29	11
0	383	29.1	0
0	386	29.2	12
0	390	29.9	12
0	395	30.2	12
0	400	30.4	0
0	404	30.7	0
0	408	31	0
0	412	31.3	0
0	416	31.6	0
0	423	32.1	0
0	429	32.4	1
0	433	32.6	1
0	437	32.8	1
0	440	33	0
0	443	33.2	0
0	446	33.5	14
0	451	34	14
0	455	34.3	15
0	462	34.9	0
0	466	35.2	0
0	473	35.7	0
0	477	36	0
0	480	36.2	0
0	484	36.5	0
0	488	36.8	0
0	494	37.2	1
0	497	37.5	0
0	500	37.8	0
0	508	38.2	1
0	512	38.4	0
0	514	38.6	1
0	518	39	0
0	522	39.4	18
0	527	40.1	18
0	532	40.3	0
0	535	40.6	19
0	538	41.1	18
0	542	41.5	18
0	547	42	18
0	552	42.1	0
0	556	42.5	0
0	563	42.9	0
0	566	43	0
0	571	43.5	1
0	574	43.9	0
0	580	44.3	0
0	585	44.4	0
0	589	44.6	0
0	593	44.8	0
0	597	45	0
0	600	45.2	0
0	604	45.6	0
0	608	46	21
0	614	46.7	21
0	620	47	0
0	623	47.2	0
0	627	47.4	0
0	630	47.8	22
0	634	48.3	22
0	638	48.8	22
0	642	49.3	22
0	647	49.6	22
0	651	49.8	0
0	655	50.2	22
0	660	50.4	0
0	665	50.8	0
0	668	51.1	23
0	674	51.4	0
0	680	51.9	1
0	683	52.2	0
0	687	52.5	0
0	692	52.7	0
0	695	53	0
0	699	53.4	24
0	703	53.6	0
0	707	54	24
0	711	54.1	25
0	717	54.8	25
0	722	54.9	0
0	726	55.3	0
0	730	55.7	0
0	734	56.1	0
0	739	56.6	1
0	742	57	0
0	746	57.4	26
0	751	57.7	27
0	754	58.2	26
0	758	58.6	26
0	762	59	26
0	766	59.4	26
0	772	59.8	26
0	777	60.1	0
0	780	60.3	27
0	784	60.9	27
0	788	61.3	27
0	792	61.7	27
0	796	62.2	27
0	800	62.5	27
0	805	62.8	27
0	809	63	28
0	812	63.5	27
0	817	63.9	27
0	822	64	0
0	827	64.4	0
0	830	64.8	28
0	835	65.1	28
0	839	65.2	29
0	847	65.7	0
0	850	65.8	30
0	854	66.3	30
0	859	66.8	31
0	862	67.3	30
0	866	67.6	30
0	870	67.9	30
0	874	68.4	30
0	878	68.7	30
0	883	69	30
0	887	69.1	31
0	893	69.9	31
0	898	70.1	0
0	901	70.4	0
0	904	70.8	31
0	908	71.3	31
0	913	71.7	31
0	917	71.9	0
0	921	72.3	31
0	926	72.4	0
0	937	72.9	0
0	941	73	2
0	946	73.3	2
0	950	73.5	1
0	956	73.7	0
0	959	73.8	2
0	962	74	1
0	965	74.2	0
0	968	74.4	0
0	973	74.6	1
0	978	74.9	1
0	984	75.4	2
0	987	75.7	1
0	990	76	0
0	994	76.3	2
0	998	76.9	2
0	1002	77.2	2
0	1007	77.6	1
0	1012	77.8	0
0	1016	78	0
0	1019	78.3	1
0	1022	78.7	0
0	1027	79.1	36
0	1032	79.3	0
0	1037	79.8	1
0	1041	80.2	0
0	1047	80.4	0
0	1052	80.7	0
0	1054	80.9	1
0	1059	81.3	0
0	1064	81.6	1
0	1067	82	0
0	1071	82.4	38
0	1075	82.6	39
0	1079	83.1	38
0	1083	83.3	39
0	1086	83.8	38
0	1090	84.2	38
0	1094	84.6	38
0	1101	85	38
0	1107	85.1	0
0	1110	85.2	1
0	1113	85.4	0
0	1116	85.6	39
0	1123	86	0
0	1126	86.1	40
0	1132	86.6	0
0	1138	87.1	1
0	1144	87.5	0
0	1147	87.7	1
0	1150	88	0
0	1154	88.3	0
0	1158	88.8	0
0	1162	89.1	0
0	1166	89.5	0
0	1170	89.8	0
0	1174	90.2	42
0	1178	90.7	42
0	1186	91.1	0
0	1190	91.3	1
0	1196	91.8	0
0	1199	92	1
0	1202	92.3	0
0	1206	92.6	0
0	1213	93	0
0	1216	93.2	0
0	1219	93.5	0
0	1223	93.9	44
0	1227	94.1	45
0	1230	94.6	44
0	1236	95.1	44
0	1243	95.4	0
0	1248	95.7	0
0	1250	95.9	0
0	1255	96.2	0
0	1259	96.4	0
0	1262	96.7	0
0	1267	97.1	0
0	1271	97.3	0
0	1274	97.7	46
0	1278	98	46
0	1283	98.5	46
0	1289	98.7	0
0	1293	99	0
0	1296	99.2	47
0	1300	99.7	47
0	1304	100	47
0	1311	100.3	47
0	1318	100.4	1
0	1320	100.5	0
0	1323	100.6	0
0	1327	100.9	48
0	1332	101.2	0
0	1336	101.5	0
0	1340	101.9	0
0	1344	102.3	0
0	1349	102.7	0
0	1353	103.1	49
0	1357	103.2	50
0	1363	103.8	51
0	1367	104.3	50
0	1372	104.5	0
0	1377	104.9	0
0	1380	105.2	51
0	1384	105.7	51
0	1388	106.2	51
0	1392	106.7	51
0	1400	107.2	51
0	1408	107.5	1
0	1410	107.6	0
0	1413	107.7	0
0	1416	107.9	0
0	1419	108.2	53
0	1422	108.7	52
0	1428	109.1	52
0	1432	109.2	0
0	1436	109.4	0
0	1439	109.7	53
0	1445	110.5	53
0	1449	110.7	54
0	1453	111.2	53
0	1457	111.4	54
0	1460	111.9	53
0	1464	112.4	53
0	1468	112.7	53
0	1473	113	53
0	1477	113.2	54
0	1481	113.7	53
0	1486	113.9	0
0	1489	114.2	0
0	1492	114.6	53
0	1496	115	53
0	1500	115.5	53
0	1504	115.8	53
0	1508	116.2	53
0	1512	116.6	53
0	1517	117	53
0	1521	117.2	0
0	1524	117.6	53
0	1528	118	53
0	1532	118.4	53
0	1536	118.8	53
0	1540	119.2	53
0	1544	119.6	53
0	1549	120	53
0	1553	120.1	54
0	1559	120.8	54
0	1563	121	0
0	1566	121.4	54
0	1572	121.9	54
0	1576	122	0
0	1580	122.2	0
0	1584	122.8	0
0	1589	123.2	55
0	1594	123.4	0
0	1598	123.8	0
0	1602	124.2	0
0	1606	124.8	0
0	1610	125.2	0
0	1616	125.5	0
0	1622	125.8	0
0	1627	126	0
0	1632	126.3	0
0	1634	126.5	0
0	1638	126.8	0
0	1642	127.1	1
0	1649	127.7	0
0	1652	127.9	1
0	1659	128.4	0
0	1662	128.6	1
0	1666	129	1
0	1671	129.5	1
0	1676	129.6	2
0	1682	130.1	0
0	1685	130.4	2
0	1688	130.8	1
0	1692	131.2	1
0	1696	131.6	0
0	1700	132	0
0	1704	132.4	61
0	1708	132.9	61
0	1712	133.3	61
0	1718	133.7	61
0	1722	133.8	0
0	1726	134	0
0	1730	134.3	0
0	1733	134.7	62
0	1741	135.4	0
0	1744	135.6	63
0	1748	136.1	63
0	1753	136.6	63
0	1758	136.7	0
0	1761	137	64
0	1765	137.5	64
0	1769	138	64
0	1773	138.5	64
0	1779	139	65
0	1785	139.8	65
0	1791	139.9	0
0	1796	140.2	0
0	1801	140.7	0
0	1804	141	0
0	1808	141.4	67
0	1812	142	67
0	1816	142.4	67
0	1821	142.7	67
0	1826	142.8	0
0	1829	143.2	68
0	1833	143.7	68
0	1841	144.2	0
0	1846	144.5	0
0	1849	144.7	0
0	1852	145	69
0	1858	145.3	0
0	1864	145.8	1
0	1870	146.2	2
0	1874	146.5	1
0	1880	147	0
0	1883	147.2	1
0	1888	147.5	0
0	1894	147.8	0
0	1898	147.9	0
0	1900	148.1	1
0	1904	148.4	1
0	1908	148.7	0
0	1914	149.1	0
0	1917	149.3	0
0	1920	149.6	0
0	1924	150	0
0	1928	150.4	73
0	1933	150.9	73
0	1938	151	0
0	1944	151.6	0
0	1951	151.9	1
0	1954	152.1	1
0	1957	152.3	0
0	1960	152.5	0
0	1966	152.9	0
0	1969	153.2	1
0	1972	153.6	0
0	1976	154	75
0	1985	154.4	0
0	1992	154.7	1
0	1996	154.9	2
0	2000	155.1	1
0	2002	155.3	0
0	2006	155.5	1
0	2010	155.8	1
0	2014	156.1	1
0	2019	156.5	1
0	2023	156.8	0
0	2029	157.1	1
0	2034	157.4	2
0	2037	157.7	1
0	2041	158	0
0	2045	158.2	0
0	2048	158.5	0
0	2052	158.9	79
0	2057	159.4	79
0	2063	159.7	0
0	2068	159.9	0
0	2070	160.1	0
0	2074	160.5	0
0	2078	160.9	0
0	2084	161.3	0
0	2089	161.6	0
0	2092	161.8	0
0	2098	162.2	0
0	2105	162.8	0
0	2108	163	0
0	2113	163.3	0
0	2117	163.6	0
0	2120	163.9	0
0	2124	164.3	0
0	2129	164.7	0
0	2134	164.8	1
0	2138	165.2	1
0	2142	165.6	1
0	2146	166	1
0	2150	166.6	1
0	2154	167	0
0	2158	167.4	0
0	2162	167.8	0
0	2166	168.2	0
0	2170	168.5	0
0	2174	168.9	84
0	2179	169.2	85
0	2183	169.7	84
0	2187	169.8	85
0	2192	170.6	85
0	2197	171	85
0	2202	171.1	0
0	2205	171.5	86
0	2210	172.3	86
0	2215	172.6	86
0	2219	172.8	0
0	2222	173.2	86
0	2227	173.6	86
0	2231	173.7	87
0	2236	174.4	87
0	2240	174.9	87
0	2244	175.4	87
0	2248	175.8	87
0	2252	176.1	87
0	2256	176.6	87
0	2260	177	87
0	2265	177.3	87
0	2270	177.5	0
0	2274	177.8	0
0	2280	178.2	1
0	2286	178.6	2
0	2292	179	0
0	2296	179.2	3
0	2299	179.5	2
0	2302	179.8	1
0	2308	180.1	2
0	2314	180.6	0
0	2318	180.8	0
0	2322	181	3
0	2327	181.4	3
0	2331	181.7	2
0	2336	181.9	2
0	2343	182.3	0
0	2347	182.5	0
0	2350	182.7	0
0	2354	182.9	3
0	2359	183.3	3
0	2362	183.6	2
0	2367	184	2
0	2370	184.3	1
0	2374	184.6	0
0	2380	185	0
0	2388	185.6	0
0	2392	185.8	2
0	2395	186.1	1
0	2398	186.4	0
0	2403	186.7	0
0	2408	187	0
0	2411	187.2	0
0	2414	187.5	2
0	2419	187.8	3
0	2422	188.2	2
0	2426	188.5	2
0	2430	188.9	1
0	2434	189.3	1
0	2438	189.7	0
0	2442	190.1	96
0	2448	190.5	0
0	2455	190.9	0
0	2460	191.1	0
0	2463	191.3	0
0	2468	191.5	0
0	2471	191.8	1
0	2474	192.2	0
0	2478	192.6	98
0	2485	193.1	0
0	2488	193.3	99
0	2497	193.8	0
0	2500	193.9	0
0	2502	194.1	100
0	2506	194.6	100
0	2510	195.1	100
0	2514	195.5	100
0	2519	195.9	100
0	2524	196	0
0	2528	196.3	0
0	2532	196.6	0
0	2537	196.9	0
0	2542	197.2	0
0	2545	197.5	0
0	2548	197.9	101
0	2553	198.2	0
0	2557	198.6	101
0	2561	198.8	0
0	2564	199.2	101
0	2568	199.6	101
0	2572	200.1	101
0	2576	200.6	101
0	2580	201	101
0	2584	201.5	101
0	2588	201.8	101
0	2593	202.1	101
0	2598	202.2	0
0	2601	202.6	102
0	2608	203.1	0
0	2611	203.4	103
0	2618	204.1	103
0	2624	204.4	0
0	2628	204.6	0
0	2631	204.8	0
0	2634	205.1	0
0	2638	205.5	0
0	2642	205.9	0
0	2647	206.3	0
0	2653	206.5	0
0	2658	206.7	0
0	2660	206.9	1
0	2665	207.3	1
0	2669	207.5	2
0	2674	207.9	1
0	2680	208	0
0	2683	208.1	2
0	2687	208.4	2
0	2691	208.8	1
0	2696	209	0
0	2699	209.2	2
0	2703	209.6	1
0	2707	209.7	1
0	2710	210.1	0
0	2714	210.5	0
0	2718	210.9	106
0	2728	211.3	0
0	2730	211.4	0
0	2733	211.6	1
0	2739	212	0
0	2743	212.1	0
0	2747	212.3	0
0	2750	212.5	0
0	2754	212.9	108
0	2760	213.3	0
0	2765	213.7	0
0	2768	214	0
0	2773	214.4	0
0	2780	214.6	0
0	2788	214.9	0
0	2793	215	1
0	2796	215.1	0
0	2798	215.2	1
0	2802	215.4	1
0	2806	215.6	0
0	2808	215.8	0
0	2812	216.1	0
0	2817	216.4	0
0	2820	216.7	1
0	2827	217.2	0
0	2830	217.4	1
0	2834	217.9	1
0	2838	218.2	1
0	2843	218.6	0
0	2848	218.8	1
0	2852	219.4	1
0	2857	219.8	1
0	2862	219.9	2
0	2868	220.5	2
0	2874	220.6	0
0	2876	220.7	3
0	2880	221.1	2
0	2883	221.5	1
0	2886	221.9	0
0	2890	222.2	0
0	2894	222.5	0
0	2898	222.9	114
0	2903	223.3	114
0	2908	223.4	0
0	2911	223.7	115
0	2915	224.2	115
0	2920	225	115
0	2926	225.4	115
0	2932	225.7	0
0	2934	225.9	0
0	2938	226.3	116
0	2942	226.8	116
0	2946	227.1	116
0	2951	227.5	116
0	2955	227.7	0
0	2958	228.1	116
0	2962	228.5	116
0	2966	229	116
0	2970	229.3	116
0	2974	229.6	116
0	2980	230.1	116
0	2984	230.2	0
0	2989	230.4	0
0	2994	230.7	1
0	3000	231.1	0
0	3003	231.3	1
0	3006	231.6	0
0	3010	231.9	0
0	3015	232.4	1
0	3018	232.8	0
0	3022	233.2	0
0	3026	233.6	0
0	3030	233.9	0
0	3034	234.3	118
0	3039	234.8	118
0	3044	235	0
0	3049	235.4	0
0	3052	235.7	119
0	3056	236.2	119
0	3060	236.7	119
0	3065	237.1	119
0	3070	237.3	0
0	3073	237.5	0
0	3077	237.9	119
0	3082	238	0
0	3087	238.4	0
0	3090	238.7	120
0	3094	239.2	120
0	3102	239.7	1
0	3105	239.9	0
0	3108	240.1	121
0	3112	240.6	121
0	3117	241.1	121
0	3122	241.4	0
0	3125	241.8	122
0	3131	242.6	122
0	3135	242.8	123
0	3138	243.3	122
0	3142	243.7	122
0	3147	244.2	122
0	3152	244.4	0
0	3156	244.7	0
0	3159	245	0
0	3162	245.4	122
0	3167	245.7	122
0	3172	245.9	0
0	3176	246.2	0
0	3185	246.8	0
0	3188	246.9	0
0	3191	247.1	0
0	3195	247.3	0
0	3199	247.6	124
0	3204	247.8	0
0	3208	248	0
0	3212	248.6	0
0	3216	249	125
0	3222	249.3	0
0	3225	249.5	0
0	3229	249.9	125
0	3234	250	0
0	3239	250.6	0
0	3244	250.8	0
0	3251	251.2	0
0	3255	251.4	0
0	3258	251.6	0
0	3262	251.9	0
0	3266	252.2	0
0	3272	252.6	1
0	3276	252.9	1
0	3279	253.2	0
0	3282	253.5	0
0	3289	253.9	0
0	3294	254.2	0
0	3297	254.4	0
0	3301	254.7	1
0	3305	254.9	1
0	3308	255.3	0
0	3312	255.6	0
0	3316	255.9	0
0	3321	256.3	0
0	3325	256.5	0
0	3328	256.9	129
0	3332	257.3	129
0	3336	257.8	129
0	3340	258.1	129
0	3344	258.4	129
0	3349	258.7	129
0	3354	258.9	0
0	3357	259.1	0
0	3361	259.5	129
0	3366	259.6	0
0	3377	260.1	1
0	3384	260.3	1
0	3386	260.4	0
0	3388	260.5	1
0	3391	260.7	0
0	3394	260.9	0
0	3401	261.3	0
0	3407	261.6	0
0	3412	261.9	0
0	3414	262.1	1
0	3418	262.4	0
0	3427	262.8	0
0	3431	262.9	0
0	3434	263	0
0	3436	263.2	0
0	3440	263.5	3
0	3444	264	3
0	3448	264.4	3
0	3455	264.7	3
0	3462	265	0
0	3467	265.1	0
0	3474	265.4	1
0	3476	265.5	0
0	3479	265.6	0
0	3482	265.8	0
0	3486	266.1	6
0	3490	266.7	6
0	3495	267.1	6
0	3500	267.2	0
0	3504	267.5	0
0	3508	267.8	0
0	3513	268.2	0
0	3516	268.5	6
0	3522	268.9	0
0	3525	269.1	6
0	3529	269.5	5
0	3534	269.7	6
0	3537	270.1	5
0	3540	270.5	4
0	3544	270.9	4
0	3549	271.3	4
0	3554	271.4	5
0	3560	272	5
0	3564	272.1	0
0	3567	272.3	5
0	3570	272.7	4
0	3575	273	4
0	3580	273.2	0
0	3584	273.5	0
0	3587	273.8	4
0	3590	274.2	3
0	3595	274.6	3
0	3600	274.8	0
0	3604	275.1	0
0	3612	275.7	0
0	3614	275.9	0
0	3618	276.2	5
0	3622	276.6	4
0	3630	277	0
0	3634	277.2	1
0	3638	277.4	0
0	3640	277.6	5
0	3644	278	4
0	3648	278.4	4
0	3652	278.8	4
0	3656	279.2	4
0	3660	279.6	4
0	3665	280.1	4
0	3670	280.2	0
0	3673	280.5	4
0	3679	280.9	3
0	3686	281	1
0	3688	281.1	0
0	3691	281.2	0
0	3694	281.5	4
0	3698	281.9	4
0	3702	282.2	4
0	3707	282.5	4
0	3711	282.7	5
0	3714	283.1	4
0	3718	283.5	3
0	3722	283.9	2
0	3726	284.3	1
0	3731	284.8	1
0	3735	285.2	0
0	3740	285.4	0
0	3743	285.7	0
0	3747	286.1	144
0	3752	286.3	0
0	3756	286.6	0
0	3762	287.1	0
0	3766	287.3	1
0	3772	287.7	2
0	3776	288	2
0	3779	288.3	1
0	3782	288.6	0
0	3786	288.9	0
0	3790	289.2	146
0	3796	289.9	146
0	3801	290	0
0	3804	290.2	0
0	3807	290.4	147
0	3814	290.9	0
0	3820	291.4	0
0	3824	291.7	0
0	3828	292	0
0	3831	292.3	0
0	3834	292.7	148
0	3840	293.2	148
0	3846	293.5	0
0	3851	293.7	0
0	3857	294	1
0	3863	294.2	1
0	3868	294.5	2
0	3871	294.7	1
0	3874	294.9	0
0	3878	295.1	2
0	3883	295.6	2
0	3886	295.9	1
0	3892	296.2	2
0	3898	296.6	0
0	3902	296.8	2
0	3906	297.1	2
0	3909	297.4	1
0	3912	297.7	0
0	3915	298	1
0	3918	298.4	0
0	3922	298.7	0
0	3926	299.1	152
0	3931	299.6	152
0	3935	299.8	153
0	3942	300.4	0
0	3945	300.7	0
0	3948	301.1	153
0	3954	301.6	153
0	3960	301.9	1
0	3963	302.1	0
0	3967	302.3	154
0	3971	302.6	155
0	3975	303.1	155
0	3981	303.6	156
0	3988	304.2	0
0	3991	304.4	0
0	3994	304.8	156
0	3998	305.3	156
0	4003	305.8	156
0	4008	305.9	0
0	4013	306.3	0
0	4017	306.6	0
0	4021	306.8	0
0	4024	307.2	157
0	4029	307.7	157
0	4033	307.9	0
0	4036	308.3	157
0	4041	308.8	157
0	4046	308.9	0
0	4052	309.3	0
0	4056	309.6	1
0	4060	310	1
0	4064	310.4	1
0	4067	310.8	0
0	4072	311.2	158
0	4078	311.3	0
0	4080	311.4	0
0	4084	311.8	0
0	4092	312.3	0
0	4094	312.5	1
0	4098	312.9	1
0	4104	313.2	0
0	4107	313.4	2
0	4110	313.8	1
0	4117	314.1	1
0	4123	314.2	0
0	4127	314.3	1
0	4132	314.6	1
0	4136	314.8	0
0	4141	315	0
0	4144	315.1	0
0	4147	315.3	2
0	4151	315.5	2
0	4154	315.9	1
0	4158	316.2	1
0	4162	316.6	0
0	4166	317	162
0	4170	317.5	162
0	4174	318	162
0	4178	318.5	162
0	4182	319	162
0	4187	319.6	162
0	4192	319.8	0
0	4195	320	0
0	4198	320.4	162
0	4202	320.9	162
0	4206	321.3	162
0	4210	321.7	162
0	4215	322.2	162
0	4221	322.4	0
0	4227	322.7	1
0	4230	322.9	1
0	4234	323.1	0
0	4238	323.3	1
0	4242	323.6	1
0	4245	323.9	0
0	4248	324.2	163
0	4252	324.7	163
0	4257	325.1	163
0	4262	325.3	0
0	4265	325.6	164
0	4268	326.1	163
0	4272	326.4	163
0	4277	326.8	163
0	4281	327	0
0	4284	327.4	163
0	4288	327.7	163
0	4292	328	163
0	4296	328.3	163
0	4300	328.7	163
0	4304	329	163
0	4309	329.3	163
0	4314	329.4	0
0	4319	330	0
0	4323	330.2	1
0	4327	330.6	0
0	4331	330.8	1
0	4335	331.2	0
0	4339	331.4	0
0	4343	331.8	164
0	4348	332	0
0	4354	332.4	1
0	4361	332.8	0
0	4364	332.9	1
0	4367	333.3	0
0	4370	333.7	166
0	4375	334.1	166
0	4380	334.2	0
0	4383	334.5	167
0	4387	335	167
0	4394	335.5	0
0	4400	335.7	0
0	4406	336	0
0	4409	336.1	0
0	4412	336.3	0
0	4415	336.6	0
0	4419	337	168
0	4424	337.1	0
0	4428	337.5	0
0	4432	337.9	0
0	4436	338.5	0
0	4445	338.9	0
0	4454	339.2	2
0	4456	339.3	1
0	4459	339.4	0
0	4462	339.5	1
0	4465	339.7	0
0	4469	339.9	2
0	4474	340.2	0
0	4478	340.4	0
0	4481	340.7	2
0	4486	341.1	1
0	4492	341.4	0
0	4495	341.6	2
0	4499	341.8	2
0	4502	342.2	1
0	4506	342.6	0
0	4510	343	0
0	4514	343.4	172
0	4519	343.8	173
0	4522	344.3	172
0	4526	344.6	172
0	4531	345.1	172
0	4536	345.2	0
0	4542	345.6	1
0	4546	346	1
0	4550	346.6	1
0	4554	347	0
0	4558	347.4	174
0	4562	347.9	174
0	4566	348.4	174
0	4571	348.8	175
0	4574	349.3	174
0	4578	349.8	174
0	4585	350.1	174
0	4589	350.2	0
0	4593	350.4	0
0	4597	350.6	175
0	4603	350.9	0
0	4607	351.1	0
0	4610	351.3	0
0	4613	351.5	176
0	4618	352.3	176
0	4622	352.6	176
0	4626	352.9	176
0	4630	353.2	176
0	4634	353.6	176
0	4638	354	176
0	4642	354.5	176
0	4646	354.8	176
0	4650	355.3	176
0	4654	355.8	176
0	4658	356.3	176
0	4662	356.8	176
0	4666	357.3	176
0	4670	357.7	176
0	4674	358.1	176
0	4678	358.5	176
0	4682	358.8	176
0	4687	359.3	176
0	4691	359.4	177
0	4696	360.2	177
0	4700	360.7	177
0	4704	361.2	177
0	4710	361.7	177
0	4716	361.8	0
0	4718	361.9	0
0	4722	362.2	0
0	4726	362.6	178
0	4732	363	0
0	4736	363.3	0
0	4740	363.6	0
0	4744	363.9	0
0	4747	364.2	179
0	4757	364.7	1
0	4760	364.8	0
0	4762	364.9	180
0	4768	365.3	0
0	4771	365.6	181
0	4774	366.1	180
0	4779	366.5	180
0	4784	366.7	0
0	4790	367.2	1
0	4796	367.6	1
0	4799	367.9	0
0	4802	368.2	0
0	4807	368.6	1
0	4810	369	0
0	4814	369.4	0
0	4820	369.7	0
0	4826	369.8	0
0	4828	369.9	0
0	4832	370.2	0
0	4836	370.5	0
0	4841	371	0
0	4844	371.4	183
0	4849	371.7	0
0	4853	372.1	183
0	4857	372.3	0
0	4860	372.7	183
0	4865	373.2	183
0	4870	373.4	0
0	4874	373.6	0
0	4878	373.9	0
0	4882	374.2	0
0	4885	374.5	184
0	4891	375	183
0	4898	375.3	0
0	4901	375.4	1
0	4904	375.6	0
0	4906	375.8	184
0	4910	376.3	184
0	4914	376.8	184
0	4918	377.1	184
0	4922	377.5	184
0	4926	378	184
0	4930	378.3	184
0	4935	378.6	184
0	4940	378.8	0
0	4943	379.1	185
0	4948	379.6	184
0	4952	379.7	0
0	4956	379.9	0
0	4959	380.3	185
0	4968	380.8	0
0	4971	380.9	0
0	4977	381.3	0
0	4980	381.5	0
0	4983	381.8	187
0	4990	382.4	0
0	4994	382.6	0
0	5004	383.2	0
0	5006	383.3	0
0	5010	383.5	1
0	5015	384	1
0	5018	384.3	0
0	5022	384.6	0
0	5027	385	0
0	5030	385.3	1
0	5036	385.7	1
0	5040	385.8	0
0	5043	386	1
0	5046	386.4	0
0	5050	386.8	0
0	5055	387.2	0
0	5059	387.4	0
0	5063	387.8	190
0	5067	388	191
0	5074	388.8	191
0	5078	388.9	0
0	5082	389.1	0
0	5085	389.4	192
0	5090	390.1	192
0	5094	390.5	192
0	5099	390.9	192
0	5103	391	193
0	5108	391.7	193
0	5113	392.1	193
0	5117	392.3	0
0	5120	392.7	193
0	5124	393	193
0	5129	393.5	193
0	5134	393.7	0
0	5137	393.9	0
0	5140	394.3	193
0	5148	394.7	193
0	5154	394.8	1
0	5158	394.9	0
0	5160	395	0
0	5164	395.2	0
0	5167	395.4	0
0	5170	395.7	194
0	5176	396.3	194
0	5180	396.4	0
0	5185	396.6	0
0	5190	396.9	1
0	5195	397.3	1
0	5198	397.6	0
0	5203	398	0
0	5206	398.3	0
0	5210	398.7	0
0	5218	399.1	0
0	5222	399.3	0
0	5225	399.5	0
0	5228	399.8	0
0	5232	400.2	197
0	5236	400.7	197
0	5244	401.3	0
0	5247	401.5	0
0	5250	401.8	198
0	5254	402.4	198
0	5258	402.7	198
0	5264	403.2	198
0	5270	403.3	0
0	5272	403.4	0
0	5276	403.7	0
0	5281	404	0
0	5285	404.3	199
0	5290	404.6	0
0	5298	405	0
0	5300	405.1	1
0	5305	405.6	1
0	5310	405.8	0
0	5317	406.2	0
0	5321	406.4	0
0	5324	406.6	0
0	5329	407	0
0	5333	407.3	2
0	5338	407.5	0
0	5341	407.8	2
0	5346	408.2	1
0	5351	408.5	0
0	5354	408.7	1
0	5359	409.1	1
0	5363	409.4	1
0	5366	409.8	0
0	5371	410.2	0
0	5375	410.4	0
0	5378	410.8	204
0	5383	411.3	204
0	5387	411.5	205
0	5392	412	204
0	5397	412.3	0
0	5400	412.5	205
0	5405	413	205
0	5410	413.3	0
0	5415	413.5	0
0	5419	413.8	0
0	5422	414.1	206
0	5428	414.4	0
0	5432	414.7	0
0	5435	415	207
0	5439	415.5	206
0	5444	415.7	0
0	5447	415.9	207
0	5451	416.4	206
0	5455	416.6	0
0	5458	417	206
0	5462	417.4	206
0	5466	417.7	206
0	5470	418.2	206
0	5474	418.7	206
0	5479	419.1	206
0	5483	419.3	0
0	5486	419.7	206
0	5490	420.1	206
0	5494	420.4	206
0	5498	420.9	206
0	5502	421.3	206
0	5506	421.7	206
0	5510	422.1	206
0	5516	422.6	206
0	5522	422.7	0
0	5524	422.8	0
0	5529	423.2	1
0	5532	423.6	0
0	5536	423.9	0
0	5540	424.3	0
0	5547	424.7	0
0	5553	424.8	1
0	5556	424.9	0
0	5558	425	0
0	5563	425.5	0
0	5567	425.7	1
0	5571	426.1	0
0	5576	426.2	0
0	5580	426.5	1
0	5584	426.9	1
0	5590	427.4	0
0	5593	427.7	2
0	5596	428.1	1
0	5600	428.4	1
0	5605	428.7	1
0	5610	428.9	0
0	5614	429.1	0
0	5617	429.4	1
0	5620	429.8	0
0	5625	430.2	0
0	5630	430.3	1
0	5634	430.9	1
0	5638	431.2	1
0	5644	431.6	1
0	5648	431.7	0
0	5652	431.9	0
0	5656	432.2	2
0	5659	432.6	1
0	5662	433	0
0	5666	433.4	210
0	5672	433.7	0
0	5675	433.9	211
0	5678	434.4	210
0	5683	434.8	210
0	5687	434.9	211
0	5692	435.7	211
0	5696	436	211
0	5700	436.4	211
0	5707	436.8	211
0	5712	436.9	0
0	5715	437	0
0	5718	437.2	212
0	5725	437.6	0
0	5730	437.9	1
0	5734	438.2	0
0	5737	438.5	0
0	5740	438.9	213
0	5744	439.4	213
0	5748	439.9	213
0	5752	440.4	213
0	5757	440.9	213
0	5761	441.1	214
0	5769	441.6	213
0	5776	441.7	1
0	5780	441.8	1
0	5782	441.9	0
0	5786	442	1
0	5789	442.2	0
0	5792	442.4	0
0	5795	442.6	0
0	5798	442.9	214
0	5802	443.4	214
0	5806	443.8	214
0	5813	444.3	214
0	5820	444.6	0
0	5822	444.7	0
0	5825	444.9	1
0	5829	445.3	0
0	5834	445.5	0
0	5837	445.8	1
0	5842	446.2	0
0	5848	446.5	0
0	5852	446.7	0
0	5855	446.9	0
0	5858	447.2	0
0	5863	447.6	0
0	5868	447.9	1
0	5874	448.5	1
0	5880	448.8	0
0	5883	449	0
0	5888	449.3	1
0	5894	449.6	0
0	5897	449.7	0
0	5901	449.9	2
0	5905	450.2	2
0	5908	450.6	1
0	5912	451	0
0	5916	451.4	219
0	5921	451.8	0
0	5924	452.2	219
0	5928	452.6	219
0	5932	452.9	219
0	5937	453.3	219
0	5942	453.5	0
0	5946	453.8	0
0	5949	454.1	220
0	5952	454.6	219
0	5957	454.9	219
0	5961	455	220
0	5965	455.5	220
0	5973	456.2	0
0	5976	456.4	221
0	5981	456.8	222
0	5984	457.3	221
0	5990	457.6	221
0	5995	457.7	0
0	5999	457.9	0
0	6002	458.1	0
0	6006	458.3	0
0	6010	458.9	0
0	6015	459.2	0
0	6020	459.4	0
0	6028	460	0
0	6030	460.2	0
0	6034	460.5	1
0	6040	460.9	0
0	6044	461.1	2
0	6047	461.5	1
0	6050	461.9	0
0	6055	462.3	0
0	6060	462.4	1
0	6064	463	1
0	6070	463.3	1
0	6074	463.4	0
0	6078	463.6	2
0	6086	464.1	0
0	6092	464.4	0
0	6094	464.5	0
0	6097	464.7	0
0	6100	465	2
0	6106	465.4	2
0	6112	465.5	0
0	6114	465.6	3
0	6118	466	3
0	6122	466.4	2
0	6127	466.8	2
0	6130	467.2	1
0	6134	467.6	1
0	6138	468	1
0	6142	468.4	0
0	6146	468.8	0
0	6151	469.2	228
0	6156	469.4	0
0	6160	469.8	0
0	6166	470.3	0
0	6169	470.5	1
0	6174	470.9	0
0	6180	471.2	0
0	6183	471.4	1
0	6187	471.7	2
0	6190	472.1	1
0	6194	472.5	1
0	6198	472.9	0
0	6203	473.3	0
0	6207	473.4	0
0	6210	473.8	230
0	6214	474.3	230
0	6219	474.8	230
0	6224	475	0
0	6228	475.3	0
0	6236	475.9	1
0	6240	476.1	0
0	6242	476.3	0
0	6246	476.6	0
0	6250	476.9	0
0	6255	477.2	0
0	6258	477.5	1
0	6262	477.9	0
0	6269	478.4	0
0	6272	478.6	0
0	6278	479	0
0	6281	479.2	1
0	6285	479.6	0
0	6289	479.8	0
0	6292	480.2	233
0	6296	480.7	233
0	6300	481.2	233
0	6304	481.5	233
0	6309	481.8	233
0	6314	481.9	0
0	6317	482.2	234
0	6324	482.7	0
0	6330	483.1	0
0	6334	483.4	0
0	6337	483.7	0
0	6340	484.1	235
0	6344	484.6	235
0	6349	485	235
0	6354	485.1	0
0	6358	485.4	0
0	6361	485.7	236
0	6365	486.2	236
0	6373	486.7	0
0	6378	487	0
0	6381	487.3	1
0	6385	487.7	0
0	6389	487.8	0
0	6394	488.2	237
0	6400	488.5	1
0	6404	488.7	0
0	6407	488.9	0
0	6413	489.1	0
0	6418	489.4	1
0	6421	489.7	0
0	6424	490	0
0	6428	490.4	0
0	6434	490.8	0
0	6439	490.9	0
0	6442	491.1	0
0	6447	491.3	0
0	6452	491.6	1
0	6456	491.9	0
0	6459	492.2	2
0	6462	492.6	1
0	6467	493	0
0	6472	493.2	0
0	6476	493.5	1
0	6482	493.9	2
0	6490	494.5	0
0	6493	494.7	3
0	6498	495	0
0	6501	495.3	4
0	6504	495.7	3
0	6508	496	3
0	6514	496.3	3
0	6520	496.6	0
0	6522	496.8	4
0	6526	497.2	4
0	6530	497.6	4
0	6534	498	4
0	6539	498.4	4
0	6544	498.5	5
0	6550	498.9	6
0	6555	499.4	6
0	6558	499.8	5
0	6562	500.2	5
0	6566	500.6	5
0	6570	501	5
0	6574	501.4	4
0	6578	501.8	4
0	6583	502.2	4
0	6587	502.4	5
0	6590	502.8	4
0	6594	503.2	3
0	6599	503.5	3
0	6602	503.9	2
0	6607	504.3	2
0	6612	504.4	0
0	6615	504.7	2
0	6619	505.1	1
0	6624	505.2	0
0	6627	505.5	1
0	6631	505.9	0
0	6635	506.1	0
0	6638	506.5	246
0	6642	507	246
0	6648	507.3	0
0	6651	507.6	0
0	6655	508	246
0	6659	508.2	0
0	6663	508.6	246
0	6667	508.8	0
0	6670	509.2	246
0	6674	509.6	246
0	6678	510.1	246
0	6682	510.4	246
0	6690	510.9	246
0	6695	511	0
0	6700	511.2	0
0	6703	511.3	1
0	6706	511.5	0
0	6709	511.7	1
0	6715	512.1	0
0	6722	512.2	1
0	6724	512.3	0
0	6728	512.4	1
0	6732	512.7	1
0	6735	513	0
0	6738	513.3	0
0	6742	513.8	0
0	6746	514.2	248
0	6751	514.7	248
0	6755	514.8	249
0	6760	515.5	249
0	6767	515.9	249
0	6774	516.2	0
0	6777	516.3	1
0	6780	516.5	0
0	6782	516.7	250
0	6786	517.2	250
0	6791	517.5	250
0	6796	517.6	0
0	6803	518.2	0
0	6806	518.4	0
0	6811	518.8	0
0	6816	519.1	0
0	6821	519.5	0
0	6824	519.8	0
0	6828	520.2	0
0	6832	520.6	0
0	6838	521	0
0	6844	521.4	0
0	6849	521.9	0
0	6852	522.2	1
0	6856	522.6	1
0	6862	523	0
0	6865	523.2	1
0	6868	523.6	0
0	6874	524	0
0	6881	524.2	0
0	6885	524.3	0
0	6887	524.4	0
0	6890	524.6	0
0	6896	525.1	0
0	6900	525.2	0
0	6904	525.4	0
0	6908	525.7	1
0	6911	526.1	0
0	6916	526.5	256
0	6922	526.6	0
0	6924	526.7	0
0	6928	527	0
0	6932	527.3	0
0	6936	527.6	0
0	6942	528	0
0	6946	528.3	0
0	6949	528.6	0
0	6952	529	257
0	6956	529.4	257
0	6960	529.9	257
0	6964	530.3	257
0	6968	530.7	257
0	6972	531.2	257
0	6978	531.6	257
0	6985	531.7	0
0	6987	531.8	0
0	6992	532	1
0	6995	532.3	0
0	6998	532.6	258
0	7002	533.1	258
0	7006	533.4	258
0	7014	533.8	258
0	7019	533.9	0
0	7023	534	0
0	7026	534.1	0
0	7031	534.3	0
0	7037	534.5	1
0	7040	534.6	0
0	7042	534.7	0
0	7047	535.2	0
0	7052	535.3	1
0	7057	535.8	1
0	7060	536.2	0
0	7066	536.6	0
0	7070	536.7	0
0	7074	536.9	1
0	7081	537.3	0
0	7084	537.4	1
0	7088	537.8	1
0	7092	538.4	1
0	7097	538.7	1
0	7102	538.8	0
0	7105	539.1	1
0	7109	539.5	0
0	7114	539.6	1
0	7117	540	0
0	7121	540.4	263
0	7126	540.5	0
0	7129	540.9	264
0	7135	541.6	264
0	7139	541.7	265
0	7144	542.4	265
0	7149	542.7	265
0	7155	542.8	0
0	7160	543.1	1
0	7164	543.4	1
0	7168	543.7	0
0	7176	544.2	0
0	7181	544.5	0
0	7184	544.6	0
0	7187	544.8	0
0	7192	545.1	1
0	7197	545.6	1
0	7200	545.9	0
0	7203	546.2	0
0	7206	546.6	268
0	7210	547	268
0	7214	547.3	268
0	7218	547.7	268
0	7222	548	268
0	7226	548.3	268
0	7231	548.7	268
0	7236	548.9	0
0	7240	549.2	0
0	7245	549.6	0
0	7248	549.9	269
0	7253	550.4	269
0	7257	550.6	270
0	7262	551.3	270
0	7266	551.6	270
0	7270	552	270
0	7276	552.5	270
0	7282	552.8	0
0	7285	553	0
0	7288	553.3	271
0	7292	553.9	271
0	7296	554.4	271
0	7300	554.9	271
0	7307	555.4	271
0	7311	555.5	0
0	7316	555.7	0
0	7320	555.9	1
0	7323	556.2	0
0	7326	556.5	0
0	7330	556.9	272
0	7335	557.5	272
0	7340	557.7	0
0	7344	557.9	0
0	7347	558.1	273
0	7353	558.6	272
0	7361	558.7	1
0	7363	558.8	0
0	7368	558.9	0
0	7370	559	1
0	7375	559.4	1
0	7378	559.7	0
0	7383	560.1	0
0	7386	560.4	274
0	7390	561	274
0	7396	561.3	274
0	7403	561.6	1
0	7406	561.8	1
0	7409	562	0
0	7412	562.2	275
0	7417	562.8	275
0	7422	562.9	0
0	7428	563.3	0
0	7431	563.5	0
0	7434	563.8	276
0	7439	564.2	277
0	7442	564.7	276
0	7447	565.1	276
0	7452	565.3	0
0	7457	565.8	0
0	7460	566.1	277
0	7466	566.6	277
0	7471	566.9	0
0	7475	567.1	278
0	7480	567.4	0
0	7486	567.8	0
0	7489	568	0
0	7492	568.3	0
0	7496	568.7	0
0	7501	569	0
0	7507	569.2	0
0	7512	569.5	0
0	7514	569.7	1
0	7519	570.1	1
0	7523	570.3	1
0	7526	570.7	0
0	7530	571.1	0
0	7535	571.4	0
0	7539	571.6	0
0	7543	572	280
0	7549	572.2	0
0	7553	572.5	0
0	7557	572.8	281
0	7562	573	0
0	7566	573.2	0
0	7570	573.5	0
0	7577	573.9	0
0	7583	574.1	0
0	7588	574.4	0
0	7592	574.6	0
0	7596	574.8	0
0	7599	575	1
0	7602	575.3	0
0	7605	575.6	0
0	7609	576	283
0	7614	576.1	0
0	7621	576.5	0
0	7626	576.7	0
0	7633	576.9	0
0	7635	577	0
0	7640	577.2	0
0	7643	577.4	0
0	7648	577.7	0
0	7651	577.9	0
0	7654	578.2	1
0	7659	578.6	1
0	7662	579	0
0	7666	579.4	286
0	7671	580	286
0	7676	580.2	0
0	7680	580.5	0
0	7686	580.9	1
0	7690	581.2	0
0	7694	581.5	0
0	7698	581.8	0
0	7701	582.1	1
0	7704	582.5	0
0	7709	582.9	287
0	7717	583.1	0
0	7722	583.3	0
0	7725	583.4	1
0	7728	583.6	0
0	7730	583.8	288
0	7734	584.2	288
0	7738	584.7	288
0	7742	585	288
0	7746	585.4	288
0	7750	585.9	288
0	7754	586.4	288
0	7758	586.8	288
0	7762	587.3	288
0	7767	587.7	288
0	7771	587.9	0
0	7776	588.3	288
0	7781	588.6	0
0	7784	588.8	289
0	7788	589.3	289
0	7792	589.8	289
0	7798	590.2	0
0	7801	590.4	290
0	7805	590.9	289
0	7809	591.1	290
0	7812	591.6	289
0	7817	592	289
0	7821	592.1	290
0	7825	592.6	290
0	7839	593.1	2
0	7843	593.2	1
0	7845	593.3	0
0	7850	593.4	0
0	7852	593.5	1
0	7855	593.7	0
0	7858	593.9	0
0	7862	594.2	1
0	7865	594.6	0
0	7868	595	291
0	7872	595.5	291
0	7876	595.9	291
0	7880	596.3	291
0	7884	596.8	291
0	7888	597.3	291
0	7893	597.8	291
0	7898	598	0
0	7904	598.4	1
0	7910	598.8	2
0	7913	599.1	1
0	7916	599.4	0
0	7924	599.7	0
0	7932	600	2
0	7934	600.1	1
0	7937	600.2	0
0	7939	600.3	1
0	7942	600.6	0
0	7946	600.9	0
0	7950	601.2	0
0	7955	601.5	0
0	7958	601.8	0
0	7964	602.1	0
0	7970	602.5	0
0	7974	602.8	0
0	7977	603.1	2
0	7980	603.5	1
0	7984	603.8	1
0	7988	604.2	0
0	7993	604.5	1
0	7996	604.9	0
0	8001	605.3	0
0	8005	605.4	0
0	8008	605.8	295
0	8012	606.3	295
0	8016	606.6	295
0	8020	607.1	295
0	8026	607.4	295
0	8030	607.5	0
0	8034	607.7	0
0	8038	608.3	0
0	8043	608.7	0
0	8047	608.8	0
0	8051	609.2	296
0	8056	609.3	0
0	8061	609.7	0
0	8064	610	0
0	8068	610.4	0
0	8072	610.7	0
0	8076	611.1	0
0	8080	611.5	0
0	8084	611.8	0
0	8088	612.2	0
0	8093	612.6	0
0	8098	612.8	0
0	8103	613	0
0	8107	613.3	0
0	8110	613.5	0
0	8115	613.9	0
0	8118	614.3	298
0	8127	614.7	0
0	8130	614.8	0
0	8132	615	299
0	8136	615.5	299
0	8140	616	299
0	8145	616.3	0
0	8148	616.7	299
0	8152	617	299
0	8158	617.5	299
0	8164	617.8	0
0	8166	618	0
0	8170	618.4	300
0	8174	618.9	300
0	8178	619.4	300
0	8183	619.7	300
0	8187	619.9	301
0	8191	620.4	300
0	8195	620.5	301
0	8200	621.3	301
0	8204	621.7	301
0	8208	622.1	301
0	8213	622.6	301
0	8220	622.8	0
0	8225	623.1	0
0	8228	623.2	0
0	8231	623.4	302
0	8236	623.7	0
0	8239	623.9	303
0	8243	624.4	302
0	8248	624.6	0
0	8254	625	0
0	8257	625.2	0
0	8260	625.5	303
0	8266	626	303
0	8273	626.1	0
0	8275	626.2	0
0	8280	626.4	0
0	8283	626.7	1
0	8290	627.1	0
0	8297	627.2	1
0	8300	627.3	0
0	8302	627.4	1
0	8306	627.6	0
0	8309	627.8	0
0	8312	628.1	1
0	8317	628.5	0